# vtk DataFile Version 2.0
william -- MATLAB -- really cool data
ASCII
DATASET UNSTRUCTURED_GRID

POINTS 29 float
-5.00000000000000000000E+01 -6.12323399573676610000E-15 0.00000000000000000000E+00
3.06161699786838300000E-15 -5.00000000000000000000E+01 0.00000000000000000000E+00
5.00000000000000000000E+01 0.00000000000000000000E+00 0.00000000000000000000E+00
3.06161699786838300000E-15 5.00000000000000000000E+01 0.00000000000000000000E+00
-3.53553390593273700000E+01 -3.53553390593273780000E+01 0.00000000000000000000E+00
3.53553390593273780000E+01 -3.53553390593273700000E+01 0.00000000000000000000E+00
3.53553390593273780000E+01 3.53553390593273700000E+01 0.00000000000000000000E+00
-3.53553390593273850000E+01 3.53553390593273700000E+01 0.00000000000000000000E+00
-4.61939766255643390000E+01 -1.91341716182544950000E+01 0.00000000000000000000E+00
-1.91341716182544880000E+01 -4.61939766255643390000E+01 0.00000000000000000000E+00
1.91341716182544910000E+01 -4.61939766255643390000E+01 0.00000000000000000000E+00
4.61939766255643390000E+01 -1.91341716182544880000E+01 0.00000000000000000000E+00
4.61939766255643390000E+01 1.91341716182544880000E+01 0.00000000000000000000E+00
1.91341716182544910000E+01 4.61939766255643390000E+01 0.00000000000000000000E+00
-1.91341716182545160000E+01 4.61939766255643250000E+01 0.00000000000000000000E+00
-4.61939766255643390000E+01 1.91341716182544840000E+01 0.00000000000000000000E+00
-2.18376806948160640000E+00 -3.44246534617445080000E+00 0.00000000000000000000E+00
-2.75022363510153770000E+01 -4.63262170160915600000E+00 0.00000000000000000000E+00
6.19271889172617750000E+00 -2.73339929857539410000E+01 0.00000000000000000000E+00
-1.48244680279957810000E+01 2.08333944650397530000E+01 0.00000000000000000000E+00
2.48686781061120930000E+01 -5.87583983887811550000E+00 0.00000000000000000000E+00
1.38174179830201640000E+01 2.06045593203757100000E+01 0.00000000000000000000E+00
-1.65269821028763500000E+01 -2.48090447128041770000E+01 0.00000000000000000000E+00
-6.39488462184090180000E-15 3.66019797045004080000E+01 0.00000000000000000000E+00
-3.43797004120326970000E+01 1.41139634184062230000E+01 0.00000000000000000000E+00
2.60506922479650420000E+01 -2.67882755969138420000E+01 0.00000000000000000000E+00
3.37430941812446150000E+01 1.37935942158765720000E+01 0.00000000000000000000E+00
-3.10554745096150850000E+01 -2.06270893361447380000E+01 0.00000000000000000000E+00
-7.26343722030093010000E+00 -3.68518838797153310000E+01 0.00000000000000000000E+00

CELLS 40 160
3 15 0 24
3 9 1 28
3 11 2 20
3 13 3 23
3 8 4 27
3 17 8 27
3 10 5 25
3 14 7 19
3 20 2 26
3 0 8 17
3 18 10 25
3 4 9 22
3 12 6 26
3 6 13 21
3 21 13 23
3 1 10 18
3 19 7 24
3 5 11 25
3 2 12 26
3 18 16 22
3 17 16 19
3 7 15 24
3 19 16 21
3 16 18 20
3 3 14 23
3 16 20 21
3 16 17 22
3 22 9 28
3 14 19 23
3 19 21 23
3 0 17 24
3 17 19 24
3 20 18 25
3 11 20 25
3 21 20 26
3 6 21 26
3 22 17 27
3 4 22 27
3 1 18 28
3 18 22 28

CELL_TYPES 40
5
5
5
5
5
5
5
5
5
5
5
5
5
5
5
5
5
5
5
5
5
5
5
5
5
5
5
5
5
5
5
5
5
5
5
5
5
5
5
5

POINT_DATA 29
SCALARS bc int
LOOKUP_TABLE default
3
3
3
3
3
3
3
3
3
3
3
3
3
3
3
3
0
0
0
0
0
0
0
0
0
0
0
0
0
CELL_DATA 40
SCALARS material int
LOOKUP_TABLE default
1
1
1
1
1
1
1
1
1
1
1
1
1
1
1
1
1
1
1
1
1
1
1
1
1
1
1
1
1
1
1
1
1
1
1
1
1
1
1
1
SCALARS hexnum int
LOOKUP_TABLE default
1
1
1
1
1
1
1
1
1
1
1
1
1
1
1
1
1
1
1
1
1
1
1
1
1
1
1
1
1
1
1
1
1
1
1
1
1
1
1
1
